# vtk DataFile Version 3.0
MOAB 5.1.0
ASCII
DATASET UNSTRUCTURED_GRID
POINTS 43 double
-6 6 6
-12 12 12
-12 -12 12
12 12 12
12 -12 12
12 12 -12
12 -12 -12
-12 -12 -12
-12 12 -12
6 0 -6
-13 -13 13
13 13 -13
13 -13 -13
13 13 13
-13 13 13
13 -13 13
-13 -13 -13
-13 13 -13
-6 -6 6
6 -6 6
6 6 -6
0 0 -6
0 -6 -6
6 0 6
6 6 6
-6 6 0
6 -6 0
0 6 -6
0 -6 0
0 0 6
-6 6 -6
6 -6 -6
6 0 0
0 6 0
-6 -6 -6
-6 0 -6
6 6 0
0 0 0
0 6 6
-6 -6 0
-6 0 0
-6 0 6
0 -6 6
CELLS 174 618
2 26 28
2 36 20
2 32 9
2 10 15
2 1 2
2 2 4
2 3 1
2 4 3
2 5 6
2 6 7
2 7 8
2 8 5
2 2 7
2 4 6
2 1 8
2 3 5
2 11 12
2 14 10
2 15 13
2 13 14
2 31 22
2 12 16
2 16 17
2 17 11
2 10 16
2 15 12
2 14 17
2 13 11
2 37 33
2 42 19
2 38 0
2 0 41
2 40 25
2 25 33
2 0 25
2 23 32
2 9 31
2 20 9
2 27 20
2 33 27
2 21 27
2 23 24
2 38 29
2 35 30
2 30 27
2 25 30
2 33 36
2 24 36
2 36 32
2 39 28
2 24 38
2 29 37
2 38 33
2 29 23
2 40 39
2 21 22
2 26 31
2 21 9
2 34 35
2 32 37
2 22 34
2 35 21
2 39 34
2 28 22
2 28 37
2 37 40
2 40 35
2 37 21
2 18 42
2 41 18
2 42 29
2 29 41
2 18 39
2 42 28
2 41 40
2 19 23
2 32 26
2 19 26
3 9 21 20
3 20 21 27
3 32 9 36
3 36 9 20
3 32 9 37
3 37 9 21
3 26 31 32
3 32 31 9
3 3 1 4
3 4 1 2
3 6 7 5
3 5 7 8
3 2 7 4
3 4 7 6
3 1 8 2
3 2 8 7
3 3 5 1
3 1 5 8
3 4 6 3
3 3 6 5
3 12 16 11
3 11 16 17
3 13 14 15
3 15 14 10
3 10 16 15
3 15 16 12
3 14 17 10
3 10 17 16
3 13 11 14
3 14 11 17
3 15 12 13
3 13 12 11
3 38 0 29
3 29 0 41
3 37 40 33
3 33 40 25
3 0 25 41
3 41 25 40
3 38 33 0
3 0 33 25
3 24 36 38
3 38 36 33
3 23 29 19
3 19 29 42
3 31 22 9
3 9 22 21
3 33 27 37
3 37 27 21
3 36 20 33
3 33 20 27
3 24 38 23
3 23 38 29
3 19 26 23
3 23 26 32
3 21 35 27
3 27 35 30
3 25 30 40
3 40 30 35
3 33 27 25
3 25 27 30
3 29 37 23
3 23 37 32
3 37 40 28
3 28 40 39
3 38 33 29
3 29 33 37
3 23 32 24
3 24 32 36
3 22 34 21
3 21 34 35
3 28 22 26
3 26 22 31
3 32 37 36
3 36 37 33
3 39 34 28
3 28 34 22
3 40 35 39
3 39 35 34
3 37 21 40
3 40 21 35
3 28 22 37
3 37 22 21
3 42 28 19
3 19 28 26
3 26 28 32
3 32 28 37
3 29 41 42
3 42 41 18
3 18 39 42
3 42 39 28
3 41 40 18
3 18 40 39
3 29 37 41
3 41 37 40
3 42 28 29
3 29 28 37
CELL_TYPES 174
3
3
3
3
3
3
3
3
3
3
3
3
3
3
3
3
3
3
3
3
3
3
3
3
3
3
3
3
3
3
3
3
3
3
3
3
3
3
3
3
3
3
3
3
3
3
3
3
3
3
3
3
3
3
3
3
3
3
3
3
3
3
3
3
3
3
3
3
3
3
3
3
3
3
3
3
3
3
5
5
5
5
5
5
5
5
5
5
5
5
5
5
5
5
5
5
5
5
5
5
5
5
5
5
5
5
5
5
5
5
5
5
5
5
5
5
5
5
5
5
5
5
5
5
5
5
5
5
5
5
5
5
5
5
5
5
5
5
5
5
5
5
5
5
5
5
5
5
5
5
5
5
5
5
5
5
5
5
5
5
5
5
5
5
5
5
5
5
5
5
5
5
5
5
POINT_DATA 43
SCALARS GLOBAL_ID int 1
LOOKUP_TABLE default
0 
0 
0 
0 
0 
0 
0 
0 
0 
0 
0 
0 
0 
0 
0 
0 
0 
0 
0 
0 
0 
0 
0 
0 
0 
0 
0 
0 
0 
0 
0 
0 
0 
0 
0 
0 
0 
0 
0 
0 
0 
0 
0 
CELL_DATA 174
SCALARS GLOBAL_ID int 1
LOOKUP_TABLE default
0 
0 
0 
0 
0 
0 
0 
0 
0 
0 
0 
0 
0 
0 
0 
0 
0 
0 
0 
0 
0 
0 
0 
0 
0 
0 
0 
0 
0 
0 
0 
0 
0 
0 
0 
0 
0 
0 
0 
0 
0 
0 
0 
0 
0 
0 
0 
0 
0 
0 
0 
0 
0 
0 
0 
0 
0 
0 
0 
0 
0 
0 
0 
0 
0 
0 
0 
0 
0 
0 
0 
0 
0 
0 
0 
0 
0 
0 
0 
0 
0 
0 
0 
0 
0 
0 
0 
0 
0 
0 
0 
0 
0 
0 
0 
0 
0 
0 
0 
0 
0 
0 
0 
0 
0 
0 
0 
0 
0 
0 
0 
0 
0 
0 
0 
0 
0 
0 
0 
0 
0 
0 
0 
0 
0 
0 
0 
0 
0 
0 
0 
0 
0 
0 
0 
0 
0 
0 
0 
0 
0 
0 
0 
0 
0 
0 
0 
0 
0 
0 
0 
0 
0 
0 
0 
0 
0 
0 
0 
0 
0 
0 
0 
0 
0 
0 
0 
0 
0 
0 
0 
0 
0 
0 
